 argument  1 = /opt/data/caffeine.nw



============================== echo of input deck ==============================

start caffeine

echo
memory stack 1000 mb heap 100 mb global 8000 mb noverify

geometry units au
symmetry c1
H -1.6627717176355483 -3.285331982235956 0.5788277480187323
N -1.5169919419314593 0.6898982006338406 0.18175898340778532
C 0.8074693269173658 0.18019274901621776 -0.047803399557190436
N -0.7660077190614637 -1.55853726095109 -0.1601403175389241
C 0.5879537280382529 -1.2142982629663759 -0.21148019257321699
C -1.8367170262009112 -0.6598481276125611 0.03090512855493993
C -0.19974503674986455 1.0775537897594585 0.1385891980697174
N 1.9510533969717887 0.92593692971287 -0.03270723007308969
O -3.0038903936496317 -1.0615292045247093 0.061681884011608436
C -1.1222563571375606 -2.9553660597586275 -0.31446478575086256
O 1.5030990663453454 -2.0149160270327346 -0.3789428491436676
H 2.28961462034556 3.0438540545908954 0.2155171563281827
C -2.559936202535725 1.6791759735159029 0.38248553163038357
H -1.7868186604174987 -3.0595452583822818 -1.1784727420537797
H -0.25066815580069923 -3.598514577674457 -0.4586243673237903
H -2.3943294099245622 2.1838521149656795 1.3396126288462316
H -3.5548150387452147 1.2264476314024362 0.3945258267242464
H -2.519242233627061 2.4112793603687437 -0.43027818569657855
C 3.298696551942235 0.44106772419735657 -0.1901322844760181
C 1.5777116149210608 2.2296677633443798 0.1611563310046317
N 0.2692278039915164 2.349795975001199 0.26895160604616014
H 3.3833047182810008 -0.04098545231661462 -1.1672286249973784
H 3.9971014907300018 1.2798571132839376 -0.1316570518831463
H 3.508957574933111 -0.26970716633776487 0.6128872442220216
end

basis
* library sto-3g
end



scf
thresh 1.0e-08
tol2e 1e-09
singlet
rhf
maxiter 200

end

tce
ccsd
2eorb
2emet 13
tilesize 10

thresh 1.0e-08
end

set tce:print_integrals T
set tce:qorb 4
set tce:qela 2
set tce:qelb 2

task tce energy
================================================================================


                                         
                                         


             Northwest Computational Chemistry Package (NWChem) 7.0.0
             --------------------------------------------------------


                    Environmental Molecular Sciences Laboratory
                       Pacific Northwest National Laboratory
                                Richland, WA 99352

                              Copyright (c) 1994-2020
                       Pacific Northwest National Laboratory
                            Battelle Memorial Institute

             NWChem is an open-source computational chemistry package
                        distributed under the terms of the
                      Educational Community License (ECL) 2.0
             A copy of the license is included with this distribution
                              in the LICENSE.TXT file

                                  ACKNOWLEDGMENT
                                  --------------

            This software and its documentation were developed at the
            EMSL at Pacific Northwest National Laboratory, a multiprogram
            national laboratory, operated for the U.S. Department of Energy
            by Battelle under Contract Number DE-AC05-76RL01830. Support
            for this work was provided by the Department of Energy Office
            of Biological and Environmental Research, Office of Basic
            Energy Sciences, and the Office of Advanced Scientific Computing.


           Job information
           ---------------

    hostname        = 8d202d870f9e
    program         = /opt/chem/nwchem/bin/LINUX64/nwchem
    date            = Wed Dec 16 10:48:20 2020

    compiled        = Tue_Nov_24_02:50:06_2020
    source          = /opt/chem/nwchem
    nwchem branch   = 7.0.0
    nwchem revision = nwchem_on_git-1692-g735cdaa70
    ga revision     = 5.7.1
    use scalapack   = F
    input           = /opt/data/caffeine.nw
    prefix          = caffeine.
    data base       = ./caffeine.db
    status          = startup
    nproc           =        1
    time left       =     -1s



           Memory information
           ------------------

    heap     =   13107198 doubles =    100.0 Mbytes
    stack    =  131071995 doubles =   1000.0 Mbytes
    global   = 1048576000 doubles =   8000.0 Mbytes (distinct from heap & stack)
    total    = 1192755193 doubles =   9100.0 Mbytes
    verify   = no 
    hardfail = no 


           Directory information
           ---------------------

  0 permanent = .
  0 scratch   = .




                                NWChem Input Module
                                -------------------


 Turning off AUTOSYM since
 SYMMETRY directive was detected!


          ------
          auto-z
          ------
      warning. autoz generated   11 bonds for atom    2
      warning. autoz generated   10 bonds for atom    3
      warning. autoz generated   11 bonds for atom    4
      warning. autoz generated   10 bonds for atom    5
      warning. autoz generated    9 bonds for atom    6
      warning. autoz generated    9 bonds for atom    7
      warning. autoz generated   11 bonds for atom    8
      warning. autoz generated    8 bonds for atom   10
      warning. autoz generated    7 bonds for atom   11
      warning. autoz generated    8 bonds for atom   13
      warning. autoz generated    8 bonds for atom   19
      warning. autoz generated    7 bonds for atom   20
      warning. autoz generated    7 bonds for atom   21
  autoz: too many torsions 
     1 autoz failed with cvr_scaling = 1.2 changing to 1.3
      warning. autoz generated   13 bonds for atom    2
      warning. autoz generated   14 bonds for atom    3
      warning. autoz generated   11 bonds for atom    4
      warning. autoz generated   12 bonds for atom    5
      warning. autoz generated   11 bonds for atom    6
      warning. autoz generated   12 bonds for atom    7
      warning. autoz generated   12 bonds for atom    8
      warning. autoz generated    9 bonds for atom   10
      warning. autoz generated    7 bonds for atom   11
      warning. autoz generated    9 bonds for atom   13
      warning. autoz generated   11 bonds for atom   19
      warning. autoz generated    9 bonds for atom   20
      warning. autoz generated    9 bonds for atom   21
  autoz: too many torsions 
     2 autoz failed with cvr_scaling = 1.3 changing to 1.4
      warning. autoz generated   14 bonds for atom    2
      warning. autoz generated   14 bonds for atom    3
      warning. autoz generated   13 bonds for atom    4
      warning. autoz generated   13 bonds for atom    5
      warning. autoz generated   13 bonds for atom    6
      warning. autoz generated   14 bonds for atom    7
      warning. autoz generated   13 bonds for atom    8
      warning. autoz generated   10 bonds for atom    9
      warning. autoz generated   10 bonds for atom   10
      warning. autoz generated    9 bonds for atom   11
      warning. autoz generated   10 bonds for atom   13
      warning. autoz generated   11 bonds for atom   19
      warning. autoz generated    9 bonds for atom   20
      warning. autoz generated   12 bonds for atom   21
  autoz: too many torsions 
     3 autoz failed with cvr_scaling = 1.4 changing to 1.5
      warning. autoz generated    7 bonds for atom    1
      warning. autoz generated   14 bonds for atom    2
      warning. autoz generated   16 bonds for atom    3
      warning. autoz generated   13 bonds for atom    4
      warning. autoz generated   17 bonds for atom    5
      warning. autoz generated   16 bonds for atom    6
      warning. autoz generated   16 bonds for atom    7
      warning. autoz generated   14 bonds for atom    8
      warning. autoz generated   11 bonds for atom    9
      warning. autoz generated   11 bonds for atom   10
      warning. autoz generated   11 bonds for atom   11
      warning. autoz generated   11 bonds for atom   13
      warning. autoz generated    7 bonds for atom   14
      warning. autoz generated    7 bonds for atom   16
      warning. autoz generated    7 bonds for atom   18
      warning. autoz generated   11 bonds for atom   19
      warning. autoz generated   12 bonds for atom   20
      warning. autoz generated   12 bonds for atom   21
      warning. autoz generated    8 bonds for atom   22
      warning. autoz generated    8 bonds for atom   24
  autoz: too many torsions 
     4 autoz failed with cvr_scaling = 1.5 changing to 1.6
      warning. autoz generated    7 bonds for atom    1
      warning. autoz generated   15 bonds for atom    2
      warning. autoz generated   17 bonds for atom    3
      warning. autoz generated   14 bonds for atom    4
      warning. autoz generated   18 bonds for atom    5
      warning. autoz generated   18 bonds for atom    6
      warning. autoz generated   17 bonds for atom    7
      warning. autoz generated   14 bonds for atom    8
      warning. autoz generated   11 bonds for atom    9
      warning. autoz generated   11 bonds for atom   10
      warning. autoz generated   13 bonds for atom   11
      warning. autoz generated   12 bonds for atom   13
      warning. autoz generated    7 bonds for atom   14
      warning. autoz generated    7 bonds for atom   15
      warning. autoz generated    7 bonds for atom   16
      warning. autoz generated    7 bonds for atom   17
      warning. autoz generated    7 bonds for atom   18
      warning. autoz generated   11 bonds for atom   19
      warning. autoz generated   14 bonds for atom   20
      warning. autoz generated   13 bonds for atom   21
      warning. autoz generated    8 bonds for atom   22
      warning. autoz generated    8 bonds for atom   24
  autoz: too many torsions 
     5 autoz failed with cvr_scaling = 1.6 changing to 1.7
      warning. autoz generated    7 bonds for atom    1
      warning. autoz generated   15 bonds for atom    2
      warning. autoz generated   17 bonds for atom    3
      warning. autoz generated   16 bonds for atom    4
      warning. autoz generated   18 bonds for atom    5
      warning. autoz generated   18 bonds for atom    6
      warning. autoz generated   17 bonds for atom    7
      warning. autoz generated   15 bonds for atom    8
      warning. autoz generated   11 bonds for atom    9
      warning. autoz generated   11 bonds for atom   10
      warning. autoz generated   13 bonds for atom   11
      warning. autoz generated    7 bonds for atom   12
      warning. autoz generated   13 bonds for atom   13
      warning. autoz generated    7 bonds for atom   14
      warning. autoz generated    7 bonds for atom   15
      warning. autoz generated    7 bonds for atom   16
      warning. autoz generated    7 bonds for atom   17
      warning. autoz generated    7 bonds for atom   18
      warning. autoz generated   12 bonds for atom   19
      warning. autoz generated   15 bonds for atom   20
      warning. autoz generated   13 bonds for atom   21
      warning. autoz generated    8 bonds for atom   22
      warning. autoz generated    7 bonds for atom   23
      warning. autoz generated    8 bonds for atom   24
  autoz: too many torsions 

 AUTOZ failed to generate good internal coordinates.
 Cartesian coordinates will be used in optimizations.



                             Geometry "geometry" -> ""
                             -------------------------

 Output coordinates in a.u. (scale by  1.000000000 to convert to a.u.)

  No.       Tag          Charge          X              Y              Z
 ---- ---------------- ---------- -------------- -------------- --------------
    1 H                    1.0000    -1.58320341    -3.25394153     0.59120425
    2 N                    7.0000    -1.43742364     0.72128865     0.19413549
    3 C                    6.0000     0.88703763     0.21158320    -0.03542689
    4 N                    7.0000    -0.68643941    -1.52714681    -0.14776381
    5 C                    6.0000     0.66752203    -1.18290781    -0.19910369
    6 C                    6.0000    -1.75714872    -0.62845768     0.04328163
    7 C                    6.0000    -0.12017673     1.10894424     0.15096570
    8 N                    7.0000     2.03062170     0.95732738    -0.02033072
    9 O                    8.0000    -2.92432209    -1.03013876     0.07405839
   10 C                    6.0000    -1.04268805    -2.92397561    -0.30208828
   11 O                    8.0000     1.58266737    -1.98352558    -0.36656634
   12 H                    1.0000     2.36918292     3.07524450     0.22789366
   13 C                    6.0000    -2.48036790     1.71056642     0.39486204
   14 H                    1.0000    -1.70725036    -3.02815481    -1.16609624
   15 H                    1.0000    -0.17109985    -3.56712413    -0.44624786
   16 H                    1.0000    -2.31476111     2.21524256     1.35198914
   17 H                    1.0000    -3.47524673     1.25783808     0.40690233
   18 H                    1.0000    -2.43967393     2.44266981    -0.41790168
   19 C                    6.0000     3.37826486     0.47245817    -0.17775578
   20 C                    6.0000     1.65727992     2.26105821     0.17353284
   21 N                    7.0000     0.34879611     2.38118642     0.28132811
   22 H                    1.0000     3.46287302    -0.00959500    -1.15485212
   23 H                    1.0000     4.07666980     1.31124756    -0.11928055
   24 H                    1.0000     3.58852588    -0.23831672     0.62526375

      Atomic Mass 
      ----------- 

      H                  1.007825
      N                 14.003070
      C                 12.000000
      O                 15.994910


 Effective nuclear repulsion energy (a.u.)    1759.8855723600

            Nuclear Dipole moment (a.u.) 
            ----------------------------
        X                 Y               Z
 ---------------- ---------------- ----------------
     0.0000000000     0.0000000000    -0.0000000000


            XYZ format geometry
            -------------------
    24
 geometry
 H                    -0.83779523    -1.72191183     0.31285184
 N                    -0.76065189     0.38168954     0.10273208
 C                     0.46940013     0.11196501    -0.01874711
 N                    -0.36324812    -0.80813135    -0.07819325
 C                     0.35323747    -0.62596790    -0.10536114
 C                    -0.92984313    -0.33256551     0.02290366
 C                    -0.06359479     0.58682806     0.07988762
 N                     1.07455881     0.50659587    -0.01075856
 O                    -1.54748472    -0.54512599     0.03919002
 C                    -0.55176680    -1.54730137    -0.15985824
 O                     0.83751157    -1.04963661    -0.19397857
 H                     1.25371770     1.62734943     0.12059614
 C                    -1.31255426     0.90519283     0.20895201
 H                    -0.90343805    -1.60243063    -0.61707160
 H                    -0.09054215    -1.88764093    -0.23614422
 H                    -1.22491891     1.17225597     0.71544189
 H                    -1.83902151     0.66561930     0.21532346
 H                    -1.29101994     1.29260529    -0.22114406
 C                     1.78770090     0.25001412    -0.09406431
 C                     0.87699483     1.19650056     0.09182963
 N                     0.18457497     1.26006968     0.14887244
 H                     1.83247362    -0.00507746    -0.61112147
 H                     2.15728091     0.69388238    -0.06312055
 H                     1.89896625    -0.12611178     0.33087535

 ==============================================================================
                                internuclear distances
 ------------------------------------------------------------------------------
       center one      |      center two      | atomic units |       a.u.
 ------------------------------------------------------------------------------
    3 C                |   2 N                |     2.39074  |     2.39074
    4 N                |   1 H                |     2.08136  |     2.08136
    4 N                |   2 N                |     2.39506  |     2.39506
    4 N                |   3 C                |     2.34769  |     2.34769
    5 C                |   2 N                |     2.86555  |     2.86555
    5 C                |   3 C                |     1.42112  |     1.42112
    5 C                |   4 N                |     1.39798  |     1.39798
    6 C                |   2 N                |     1.39528  |     1.39528
    6 C                |   3 C                |     2.77553  |     2.77553
    6 C                |   4 N                |     1.41087  |     1.41087
    6 C                |   5 C                |     2.49904  |     2.49904
    7 C                |   2 N                |     1.37378  |     1.37378
    7 C                |   3 C                |     1.36179  |     1.36179
    7 C                |   4 N                |     2.71272  |     2.71272
    7 C                |   5 C                |     2.44859  |     2.44859
    7 C                |   6 C                |     2.38953  |     2.38953
    8 N                |   3 C                |     1.36534  |     1.36534
    8 N                |   5 C                |     2.54374  |     2.54374
    8 N                |   7 C                |     2.16293  |     2.16293
    9 O                |   2 N                |     2.30061  |     2.30061
    9 O                |   4 N                |     2.30312  |     2.30312
    9 O                |   6 C                |     1.23474  |     1.23474
   10 C                |   1 H                |     1.09499  |     1.09499
   10 C                |   4 N                |     1.44978  |     1.44978
   10 C                |   5 C                |     2.44269  |     2.44269
   10 C                |   6 C                |     2.42881  |     2.42881
   10 C                |   9 O                |     2.69604  |     2.69604
   11 O                |   3 C                |     2.32638  |     2.32638
   11 O                |   4 N                |     2.32487  |     2.32487
   11 O                |   5 C                |     1.22741  |     1.22741
   11 O                |  10 C                |     2.78946  |     2.78946
   13 C                |   2 N                |     1.45145  |     1.45145
   13 C                |   6 C                |     2.47340  |     2.47340
   13 C                |   7 C                |     2.44784  |     2.44784
   13 C                |   9 O                |     2.79490  |     2.79490
   14 H                |   4 N                |     2.08137  |     2.08137
   14 H                |  10 C                |     1.09499  |     1.09499
   15 H                |  10 C                |     1.09274  |     1.09274
   16 H                |   2 N                |     2.08381  |     2.08381
   16 H                |  13 C                |     1.09463  |     1.09463
   17 H                |   2 N                |     2.11799  |     2.11799
   17 H                |  13 C                |     1.09311  |     1.09311
   18 H                |   2 N                |     2.08381  |     2.08381
   18 H                |  13 C                |     1.09463  |     1.09463
   19 C                |   3 C                |     2.50889  |     2.50889
   19 C                |   8 N                |     1.44084  |     1.44084
   20 C                |   3 C                |     2.19938  |     2.19938
   20 C                |   7 C                |     2.11831  |     2.11831
   20 C                |   8 N                |     1.36992  |     1.36992
   20 C                |  12 H                |     1.08289  |     1.08289
   20 C                |  19 C                |     2.50685  |     2.50685
   21 N                |   2 N                |     2.43997  |     2.43997
   21 N                |   3 C                |     2.25770  |     2.25770
   21 N                |   7 C                |     1.36218  |     1.36218
   21 N                |   8 N                |     2.22417  |     2.22417
   21 N                |  13 C                |     2.90977  |     2.90977
   21 N                |  20 C                |     1.31840  |     1.31840
   22 H                |   8 N                |     2.06723  |     2.06723
   22 H                |  19 C                |     1.09282  |     1.09282
   23 H                |   8 N                |     2.07879  |     2.07879
   23 H                |  19 C                |     1.09305  |     1.09305
   24 H                |   8 N                |     2.06723  |     2.06723
   24 H                |  19 C                |     1.09282  |     1.09282
 ------------------------------------------------------------------------------
                         number of included internuclear distances:         63
 ==============================================================================



 ==============================================================================
                                 internuclear angles
 ------------------------------------------------------------------------------
        center 1       |       center 2       |       center 3       |  degrees
 ------------------------------------------------------------------------------
    1 H                |  10 C                |   4 N                |   108.95
    2 N                |   3 C                |   4 N                |    60.72
    2 N                |   3 C                |   5 C                |    94.02
    3 C                |   2 N                |   6 C                |    90.35
    2 N                |   7 C                |   3 C                |   121.84
    3 C                |   2 N                |   9 O                |   117.46
    3 C                |   2 N                |  13 C                |   149.01
    3 C                |   2 N                |  16 H                |   127.99
    3 C                |   2 N                |  17 H                |   177.61
    3 C                |   2 N                |  18 H                |   127.99
    2 N                |   3 C                |  21 N                |    63.25
    2 N                |   4 N                |   5 C                |    94.46
    2 N                |   6 C                |   4 N                |   117.19
    4 N                |   2 N                |   7 C                |    87.69
    2 N                |   9 O                |   4 N                |    62.70
    4 N                |   2 N                |  13 C                |   152.24
    4 N                |   2 N                |  16 H                |   152.18
    4 N                |   2 N                |  17 H                |   123.63
    4 N                |   2 N                |  18 H                |   152.18
    4 N                |   2 N                |  21 N                |   114.47
    2 N                |   6 C                |   5 C                |    90.16
    2 N                |   7 C                |   5 C                |    92.80
    5 C                |   2 N                |   9 O                |    87.81
    5 C                |   2 N                |  13 C                |   178.66
    5 C                |   2 N                |  16 H                |   149.53
    5 C                |   2 N                |  17 H                |   152.73
    5 C                |   2 N                |  18 H                |   149.53
    5 C                |   2 N                |  21 N                |    85.37
    6 C                |   2 N                |   7 C                |   119.29
    2 N                |   6 C                |   9 O                |   121.91
    6 C                |   2 N                |  13 C                |   120.64
    6 C                |   2 N                |  16 H                |   131.08
    6 C                |   2 N                |  17 H                |    92.03
    6 C                |   2 N                |  18 H                |   131.08
    6 C                |   2 N                |  21 N                |   146.07
    7 C                |   2 N                |   9 O                |   146.40
    7 C                |   2 N                |  13 C                |   120.07
    7 C                |   2 N                |  16 H                |   102.64
    7 C                |   2 N                |  17 H                |   148.67
    7 C                |   2 N                |  18 H                |   102.64
    2 N                |   7 C                |  21 N                |   126.20
    9 O                |   2 N                |  13 C                |    93.54
    9 O                |   2 N                |  16 H                |   107.62
    9 O                |   2 N                |  17 H                |    64.93
    9 O                |   2 N                |  18 H                |   107.62
    9 O                |   2 N                |  21 N                |   173.17
    2 N                |  13 C                |  16 H                |   109.05
    2 N                |  13 C                |  17 H                |   111.91
    2 N                |  13 C                |  18 H                |   109.05
   13 C                |   2 N                |  21 N                |    93.29
   16 H                |   2 N                |  17 H                |    50.02
   16 H                |   2 N                |  18 H                |    50.84
   16 H                |   2 N                |  21 N                |    78.50
   17 H                |   2 N                |  18 H                |    50.02
   17 H                |   2 N                |  21 N                |   121.90
   18 H                |   2 N                |  21 N                |    78.50
    2 N                |   3 C                |   4 N                |    60.72
    2 N                |   3 C                |   5 C                |    94.02
    3 C                |   2 N                |   6 C                |    90.35
    3 C                |   7 C                |   2 N                |   121.84
    2 N                |   3 C                |   8 N                |   134.18
    2 N                |   3 C                |  11 O                |   120.37
    2 N                |   3 C                |  19 C                |   161.57
    2 N                |   3 C                |  20 C                |    97.63
    2 N                |   3 C                |  21 N                |    63.25
    3 C                |   5 C                |   4 N                |   112.77
    3 C                |   4 N                |   6 C                |    91.74
    4 N                |   3 C                |   7 C                |    89.94
    4 N                |   3 C                |   8 N                |   165.11
    3 C                |  11 O                |   4 N                |    60.63
    4 N                |   3 C                |  19 C                |   137.71
    4 N                |   3 C                |  20 C                |   158.34
    4 N                |   3 C                |  21 N                |   123.96
    3 C                |   5 C                |   6 C                |    85.47
    5 C                |   3 C                |   7 C                |   123.24
    5 C                |   3 C                |   8 N                |   131.81
    3 C                |   5 C                |  11 O                |   122.72
    5 C                |   3 C                |  19 C                |   104.41
    5 C                |   3 C                |  20 C                |   168.36
    5 C                |   3 C                |  21 N                |   157.27
    3 C                |   7 C                |   6 C                |    91.23
    6 C                |   3 C                |   8 N                |   164.35
    6 C                |   3 C                |  11 O                |    90.19
    6 C                |   3 C                |  19 C                |   168.25
    6 C                |   3 C                |  20 C                |   127.80
    6 C                |   3 C                |  21 N                |    93.43
    7 C                |   3 C                |   8 N                |   104.96
    7 C                |   3 C                |  11 O                |   149.59
    7 C                |   3 C                |  19 C                |   132.35
    3 C                |   7 C                |  20 C                |    74.88
    3 C                |   7 C                |  21 N                |   111.96
    8 N                |   3 C                |  11 O                |   105.46
    3 C                |   8 N                |  19 C                |   126.75
    3 C                |   8 N                |  20 C                |   107.04
    3 C                |   8 N                |  21 N                |    73.61
   11 O                |   3 C                |  19 C                |    78.06
   11 O                |   3 C                |  20 C                |   142.00
   11 O                |   3 C                |  21 N                |   176.38
    3 C                |  20 C                |  19 C                |    64.04
   19 C                |   3 C                |  21 N                |    98.32
    3 C                |  20 C                |  21 N                |    75.23
    1 H                |   4 N                |   2 N                |   126.38
    1 H                |   4 N                |   3 C                |   152.40
    1 H                |   4 N                |   5 C                |   129.39
    1 H                |   4 N                |   6 C                |    98.82
    1 H                |   4 N                |   7 C                |   148.99
    1 H                |   4 N                |   9 O                |    74.11
    4 N                |  10 C                |   1 H                |   108.95
    1 H                |   4 N                |  11 O                |   106.92
    1 H                |   4 N                |  14 H                |    50.51
    4 N                |   3 C                |   2 N                |    60.72
    2 N                |   4 N                |   5 C                |    94.46
    4 N                |   6 C                |   2 N                |   117.19
    4 N                |   2 N                |   7 C                |    87.69
    4 N                |   9 O                |   2 N                |    62.70
    2 N                |   4 N                |  10 C                |   147.42
    2 N                |   4 N                |  11 O                |   120.25
    2 N                |   4 N                |  14 H                |   126.38
    4 N                |   5 C                |   3 C                |   112.77
    3 C                |   4 N                |   6 C                |    91.74
    4 N                |   3 C                |   7 C                |    89.94
    3 C                |   4 N                |   9 O                |   119.13
    3 C                |   4 N                |  10 C                |   152.05
    4 N                |  11 O                |   3 C                |    60.63
    3 C                |   4 N                |  14 H                |   152.40
    5 C                |   4 N                |   6 C                |   125.67
    4 N                |   5 C                |   7 C                |    85.05
    5 C                |   4 N                |   9 O                |   153.06
    5 C                |   4 N                |  10 C                |   118.12
    4 N                |   5 C                |  11 O                |   124.51
    5 C                |   4 N                |  14 H                |   129.39
    4 N                |   6 C                |   7 C                |    87.10
    4 N                |   6 C                |   9 O                |   120.90
    6 C                |   4 N                |  10 C                |   116.21
    6 C                |   4 N                |  11 O                |   151.46
    6 C                |   4 N                |  14 H                |    98.82
    7 C                |   4 N                |   9 O                |    89.00
    7 C                |   4 N                |  10 C                |   177.82
    7 C                |   4 N                |  11 O                |    89.85
    7 C                |   4 N                |  14 H                |   148.99
    9 O                |   4 N                |  10 C                |    88.82
    9 O                |   4 N                |  11 O                |   178.85
    9 O                |   4 N                |  14 H                |    74.11
   10 C                |   4 N                |  11 O                |    92.33
    4 N                |  10 C                |  14 H                |   108.95
   11 O                |   4 N                |  14 H                |   106.92
    5 C                |   3 C                |   2 N                |    94.02
    5 C                |   4 N                |   2 N                |    94.46
    5 C                |   6 C                |   2 N                |    90.16
    5 C                |   7 C                |   2 N                |    92.80
    2 N                |   5 C                |   8 N                |    79.91
    2 N                |   5 C                |  10 C                |    88.00
    2 N                |   5 C                |  11 O                |   179.06
    3 C                |   5 C                |   4 N                |   112.77
    3 C                |   5 C                |   6 C                |    85.47
    5 C                |   3 C                |   7 C                |   123.24
    5 C                |   3 C                |   8 N                |   131.81
    3 C                |   5 C                |  10 C                |   144.33
    3 C                |   5 C                |  11 O                |   122.72
    5 C                |   4 N                |   6 C                |   125.67
    4 N                |   5 C                |   7 C                |    85.05
    4 N                |   5 C                |   8 N                |   136.35
    5 C                |   4 N                |  10 C                |   118.12
    4 N                |   5 C                |  11 O                |   124.51
    5 C                |   7 C                |   6 C                |    62.19
    6 C                |   5 C                |   8 N                |   109.05
    5 C                |  10 C                |   6 C                |    61.73
    6 C                |   5 C                |  11 O                |   151.81
    5 C                |   7 C                |   8 N                |    66.62
    7 C                |   5 C                |  10 C                |   116.61
    7 C                |   5 C                |  11 O                |   150.45
    8 N                |   5 C                |  10 C                |   167.92
    8 N                |   5 C                |  11 O                |    99.14
   10 C                |   5 C                |  11 O                |    92.94
    6 C                |   2 N                |   3 C                |    90.35
    2 N                |   6 C                |   4 N                |   117.19
    2 N                |   6 C                |   5 C                |    90.16
    6 C                |   2 N                |   7 C                |   119.29
    2 N                |   6 C                |   9 O                |   121.91
    2 N                |   6 C                |  10 C                |   149.57
    6 C                |   2 N                |  13 C                |   120.64
    6 C                |   4 N                |   3 C                |    91.74
    6 C                |   5 C                |   3 C                |    85.47
    6 C                |   7 C                |   3 C                |    91.23
    3 C                |   6 C                |   9 O                |   178.62
    3 C                |   6 C                |  10 C                |    90.10
    3 C                |   6 C                |  13 C                |    89.79
    6 C                |   4 N                |   5 C                |   125.67
    4 N                |   6 C                |   7 C                |    87.10
    4 N                |   6 C                |   9 O                |   120.90
    6 C                |   4 N                |  10 C                |   116.21
    4 N                |   6 C                |  13 C                |   147.51
    6 C                |   7 C                |   5 C                |    62.19
    5 C                |   6 C                |   9 O                |   147.93
    6 C                |  10 C                |   5 C                |    61.73
    5 C                |   6 C                |  13 C                |   120.48
    7 C                |   6 C                |   9 O                |   152.00
    7 C                |   6 C                |  10 C                |   119.48
    6 C                |   7 C                |  13 C                |    61.49
    9 O                |   6 C                |  10 C                |    88.52
    9 O                |   6 C                |  13 C                |    91.59
   10 C                |   6 C                |  13 C                |   179.89
    2 N                |   7 C                |   3 C                |   121.84
    7 C                |   2 N                |   4 N                |    87.69
    2 N                |   7 C                |   5 C                |    92.80
    7 C                |   2 N                |   6 C                |   119.29
    2 N                |   7 C                |   8 N                |   159.42
    7 C                |   2 N                |  13 C                |   120.07
    2 N                |   7 C                |  20 C                |   163.28
    2 N                |   7 C                |  21 N                |   126.20
    7 C                |   3 C                |   4 N                |    89.94
    7 C                |   3 C                |   5 C                |   123.24
    3 C                |   7 C                |   6 C                |    91.23
    7 C                |   3 C                |   8 N                |   104.96
    3 C                |   7 C                |  13 C                |   152.71
    3 C                |   7 C                |  20 C                |    74.88
    3 C                |   7 C                |  21 N                |   111.96
    7 C                |   5 C                |   4 N                |    85.05
    7 C                |   6 C                |   4 N                |    87.10
    4 N                |   7 C                |   8 N                |    97.51
    4 N                |   7 C                |  13 C                |    92.78
    4 N                |   7 C                |  20 C                |   134.82
    4 N                |   7 C                |  21 N                |   171.89
    5 C                |   7 C                |   6 C                |    62.19
    5 C                |   7 C                |   8 N                |    66.62
    5 C                |   7 C                |  13 C                |   123.67
    5 C                |   7 C                |  20 C                |   103.93
    5 C                |   7 C                |  21 N                |   141.00
    6 C                |   7 C                |   8 N                |   128.81
    6 C                |   7 C                |  13 C                |    61.49
    6 C                |   7 C                |  20 C                |   166.11
    6 C                |   7 C                |  21 N                |   156.82
    8 N                |   7 C                |  13 C                |   169.71
    7 C                |  20 C                |   8 N                |    73.12
    8 N                |   7 C                |  21 N                |    74.38
   13 C                |   7 C                |  20 C                |   132.40
   13 C                |   7 C                |  21 N                |    95.33
    7 C                |  21 N                |  20 C                |   104.40
    8 N                |   3 C                |   5 C                |   131.81
    8 N                |   3 C                |   7 C                |   104.96
    3 C                |   8 N                |  19 C                |   126.75
    3 C                |   8 N                |  20 C                |   107.04
    3 C                |   8 N                |  21 N                |    73.61
    3 C                |   8 N                |  22 H                |   108.59
    3 C                |   8 N                |  23 H                |   156.47
    3 C                |   8 N                |  24 H                |   108.59
    8 N                |   7 C                |   5 C                |    66.62
    5 C                |   8 N                |  19 C                |   102.15
    5 C                |   8 N                |  20 C                |   131.65
    5 C                |   8 N                |  21 N                |    98.22
    5 C                |   8 N                |  22 H                |    86.51
    5 C                |   8 N                |  23 H                |   131.86
    5 C                |   8 N                |  24 H                |    86.51
    7 C                |   8 N                |  19 C                |   164.22
    8 N                |  20 C                |   7 C                |    73.12
    8 N                |   7 C                |  21 N                |    74.38
    7 C                |   8 N                |  22 H                |   139.93
    7 C                |   8 N                |  23 H                |   166.06
    7 C                |   8 N                |  24 H                |   139.93
   19 C                |   8 N                |  20 C                |   126.20
   19 C                |   8 N                |  21 N                |   159.64
    8 N                |  19 C                |  22 H                |   108.57
    8 N                |  19 C                |  23 H                |   109.48
    8 N                |  19 C                |  24 H                |   108.57
    8 N                |  20 C                |  21 N                |   111.64
   20 C                |   8 N                |  22 H                |   135.37
   20 C                |   8 N                |  23 H                |    96.49
   20 C                |   8 N                |  24 H                |   135.37
   21 N                |   8 N                |  22 H                |   153.87
   21 N                |   8 N                |  23 H                |   129.92
   21 N                |   8 N                |  24 H                |   153.87
   22 H                |   8 N                |  23 H                |    51.07
   22 H                |   8 N                |  24 H                |    51.59
   23 H                |   8 N                |  24 H                |    51.07
    2 N                |   9 O                |   4 N                |    62.70
    9 O                |   6 C                |   2 N                |   121.91
    2 N                |   9 O                |  10 C                |    95.22
    9 O                |   2 N                |  13 C                |    93.54
    9 O                |   6 C                |   4 N                |   120.90
    9 O                |   4 N                |  10 C                |    88.82
    4 N                |   9 O                |  13 C                |    93.92
    9 O                |   6 C                |  10 C                |    88.52
    9 O                |   6 C                |  13 C                |    91.59
   10 C                |   9 O                |  13 C                |   126.44
    1 H                |  10 C                |   4 N                |   108.95
    1 H                |  10 C                |   5 C                |   121.74
    1 H                |  10 C                |   6 C                |    91.35
    1 H                |  10 C                |   9 O                |    75.72
    1 H                |  10 C                |  11 O                |   125.81
    1 H                |  10 C                |  14 H                |   108.39
    1 H                |  10 C                |  15 H                |   108.90
   10 C                |   4 N                |   5 C                |   118.12
   10 C                |   4 N                |   6 C                |   116.21
   10 C                |   4 N                |   9 O                |    88.82
   10 C                |   4 N                |  11 O                |    92.33
    4 N                |  10 C                |  14 H                |   108.95
    4 N                |  10 C                |  15 H                |   112.65
    5 C                |  10 C                |   6 C                |    61.73
    5 C                |  10 C                |   9 O                |    88.97
   10 C                |   5 C                |  11 O                |    92.94
    5 C                |  10 C                |  14 H                |   121.74
    5 C                |  10 C                |  15 H                |    82.34
   10 C                |   6 C                |   9 O                |    88.52
    6 C                |  10 C                |  11 O                |    87.79
    6 C                |  10 C                |  14 H                |    91.35
    6 C                |  10 C                |  15 H                |   144.06
    9 O                |  10 C                |  11 O                |   115.04
    9 O                |  10 C                |  14 H                |    75.72
    9 O                |  10 C                |  15 H                |   171.31
   11 O                |  10 C                |  14 H                |   125.81
   11 O                |  10 C                |  15 H                |    56.27
   14 H                |  10 C                |  15 H                |   108.90
    3 C                |  11 O                |   4 N                |    60.63
   11 O                |   5 C                |   3 C                |   122.72
    3 C                |  11 O                |  10 C                |    91.91
   11 O                |   5 C                |   4 N                |   124.51
   11 O                |   4 N                |  10 C                |    92.33
   11 O                |   5 C                |  10 C                |    92.94
   13 C                |   2 N                |   6 C                |   120.64
   13 C                |   2 N                |   7 C                |   120.07
   13 C                |   2 N                |   9 O                |    93.54
    2 N                |  13 C                |  16 H                |   109.05
    2 N                |  13 C                |  17 H                |   111.91
    2 N                |  13 C                |  18 H                |   109.05
   13 C                |   2 N                |  21 N                |    93.29
   13 C                |   7 C                |   6 C                |    61.49
   13 C                |   6 C                |   9 O                |    91.59
    6 C                |  13 C                |  16 H                |   121.07
    6 C                |  13 C                |  17 H                |    82.88
    6 C                |  13 C                |  18 H                |   121.07
    6 C                |  13 C                |  21 N                |    85.88
    7 C                |  13 C                |   9 O                |    84.30
    7 C                |  13 C                |  16 H                |    93.13
    7 C                |  13 C                |  17 H                |   140.97
    7 C                |  13 C                |  18 H                |    93.13
   13 C                |   7 C                |  21 N                |    95.33
    9 O                |  13 C                |  16 H                |   125.20
    9 O                |  13 C                |  17 H                |    56.67
    9 O                |  13 C                |  18 H                |   125.21
    9 O                |  13 C                |  21 N                |   112.08
   16 H                |  13 C                |  17 H                |   108.60
   16 H                |  13 C                |  18 H                |   109.59
   16 H                |  13 C                |  21 N                |    77.34
   17 H                |  13 C                |  18 H                |   108.60
   17 H                |  13 C                |  21 N                |   168.76
   18 H                |  13 C                |  21 N                |    77.33
   14 H                |  10 C                |   4 N                |   108.95
   16 H                |  13 C                |   2 N                |   109.05
   17 H                |  13 C                |   2 N                |   111.91
   18 H                |  13 C                |   2 N                |   109.05
   19 C                |   8 N                |   3 C                |   126.75
   19 C                |  20 C                |   3 C                |    64.04
    3 C                |  19 C                |  22 H                |    94.69
    3 C                |  19 C                |  23 H                |   135.33
    3 C                |  19 C                |  24 H                |    94.69
   19 C                |   8 N                |  20 C                |   126.20
    8 N                |  19 C                |  22 H                |   108.57
    8 N                |  19 C                |  23 H                |   109.48
    8 N                |  19 C                |  24 H                |   108.57
   20 C                |  19 C                |  22 H                |   119.55
   20 C                |  19 C                |  23 H                |    83.32
   20 C                |  19 C                |  24 H                |   119.55
   22 H                |  19 C                |  23 H                |   109.69
   22 H                |  19 C                |  24 H                |   110.81
   23 H                |  19 C                |  24 H                |   109.69
   20 C                |   7 C                |   3 C                |    74.88
   20 C                |   8 N                |   3 C                |   107.04
    3 C                |  20 C                |  12 H                |   159.33
    3 C                |  20 C                |  19 C                |    64.04
    3 C                |  20 C                |  21 N                |    75.23
    7 C                |  20 C                |   8 N                |    73.12
    7 C                |  20 C                |  12 H                |   163.96
    7 C                |  20 C                |  19 C                |   100.75
   20 C                |  21 N                |   7 C                |   104.40
    8 N                |  20 C                |  12 H                |   122.92
   20 C                |   8 N                |  19 C                |   126.20
    8 N                |  20 C                |  21 N                |   111.64
   12 H                |  20 C                |  19 C                |    95.29
   12 H                |  20 C                |  21 N                |   125.44
   19 C                |  20 C                |  21 N                |   139.27
   21 N                |   3 C                |   2 N                |    63.25
   21 N                |   7 C                |   2 N                |   126.20
    2 N                |  21 N                |   8 N                |    96.50
   21 N                |   2 N                |  13 C                |    93.29
    2 N                |  21 N                |  20 C                |   131.43
   21 N                |   7 C                |   3 C                |   111.96
   21 N                |   8 N                |   3 C                |    73.61
    3 C                |  21 N                |  13 C                |    90.90
   21 N                |  20 C                |   3 C                |    75.23
   21 N                |   7 C                |   8 N                |    74.38
   21 N                |   7 C                |  13 C                |    95.33
    7 C                |  21 N                |  20 C                |   104.40
    8 N                |  21 N                |  13 C                |   126.37
   21 N                |  20 C                |   8 N                |   111.64
   13 C                |  21 N                |  20 C                |   161.29
   22 H                |  19 C                |   8 N                |   108.57
   23 H                |  19 C                |   8 N                |   109.48
   24 H                |  19 C                |   8 N                |   108.57
 ------------------------------------------------------------------------------
                            number of included internuclear angles:        398
 ==============================================================================





 Summary of "ao basis" -> "" (cartesian)
 ------------------------------------------------------------------------------
       Tag                 Description            Shells   Functions and Types
 ---------------- ------------------------------  ------  ---------------------
 *                           sto-3g                   on all atoms 


                      Basis "ao basis" -> "ao basis" (cartesian)
                      -----
  H (Hydrogen)
  ------------
            Exponent  Coefficients 
       -------------- ---------------------------------------------------------
  1 S  3.42525091E+00  0.154329
  1 S  6.23913730E-01  0.535328
  1 S  1.68855400E-01  0.444635

  N (Nitrogen)
  ------------
            Exponent  Coefficients 
       -------------- ---------------------------------------------------------
  1 S  9.91061690E+01  0.154329
  1 S  1.80523120E+01  0.535328
  1 S  4.88566020E+00  0.444635

  2 S  3.78045590E+00 -0.099967
  2 S  8.78496600E-01  0.399513
  2 S  2.85714400E-01  0.700115

  3 P  3.78045590E+00  0.155916
  3 P  8.78496600E-01  0.607684
  3 P  2.85714400E-01  0.391957

  C (Carbon)
  ----------
            Exponent  Coefficients 
       -------------- ---------------------------------------------------------
  1 S  7.16168370E+01  0.154329
  1 S  1.30450960E+01  0.535328
  1 S  3.53051220E+00  0.444635

  2 S  2.94124940E+00 -0.099967
  2 S  6.83483100E-01  0.399513
  2 S  2.22289900E-01  0.700115

  3 P  2.94124940E+00  0.155916
  3 P  6.83483100E-01  0.607684
  3 P  2.22289900E-01  0.391957

  O (Oxygen)
  ----------
            Exponent  Coefficients 
       -------------- ---------------------------------------------------------
  1 S  1.30709320E+02  0.154329
  1 S  2.38088610E+01  0.535328
  1 S  6.44360830E+00  0.444635

  2 S  5.03315130E+00 -0.099967
  2 S  1.16959610E+00  0.399513
  2 S  3.80389000E-01  0.700115

  3 P  5.03315130E+00  0.155916
  3 P  1.16959610E+00  0.607684
  3 P  3.80389000E-01  0.391957



 Summary of "ao basis" -> "ao basis" (cartesian)
 ------------------------------------------------------------------------------
       Tag                 Description            Shells   Functions and Types
 ---------------- ------------------------------  ------  ---------------------
 H                           sto-3g                  1        1   1s
 N                           sto-3g                  3        5   2s1p
 C                           sto-3g                  3        5   2s1p
 O                           sto-3g                  3        5   2s1p


                                 NWChem SCF Module
                                 -----------------



  ao basis        = "ao basis"
  functions       =    80
  atoms           =    24
  closed shells   =    51
  open shells     =     0
  charge          =   0.00
  wavefunction    = RHF 
  input vectors   = atomic
  output vectors  = ./caffeine.movecs
  use symmetry    = F
  symmetry adapt  = F


 Summary of "ao basis" -> "ao basis" (cartesian)
 ------------------------------------------------------------------------------
       Tag                 Description            Shells   Functions and Types
 ---------------- ------------------------------  ------  ---------------------
 H                           sto-3g                  1        1   1s
 N                           sto-3g                  3        5   2s1p
 C                           sto-3g                  3        5   2s1p
 O                           sto-3g                  3        5   2s1p



 Forming initial guess at       1.5s


      Superposition of Atomic Density Guess
      -------------------------------------

 Sum of atomic energies:        -664.11220506

      Non-variational initial energy
      ------------------------------

 Total energy =    -730.898151
 1-e energy   =   -4333.998638
 2-e energy   =    1843.214914
 HOMO         =      -0.101520
 LUMO         =       0.363170


 Starting SCF solution at       2.7s



 ----------------------------------------------
         Quadratically convergent ROHF

 Convergence threshold     :          1.000E-08
 Maximum no. of iterations :          200
 Final Fock-matrix accuracy:          1.000E-09
 ----------------------------------------------


              iter       energy          gnorm     gmax       time
             ----- ------------------- --------- --------- --------
                 1     -627.5669136961  1.14D+00  2.43D-01     11.1
                 2     -627.6262985006  2.25D-01  3.28D-02     17.3
                 3     -627.6287450227  7.33D-03  1.97D-03     34.7
                 4     -627.6287489065  8.99D-06  2.92D-06     63.7
                 5     -627.6287489065  3.11D-10  5.57D-11    104.6


       Final RHF  results 
       ------------------ 

         Total SCF energy =   -627.628748906485
      One-electron energy =  -4287.106797026985
      Two-electron energy =   1899.592475760491
 Nuclear repulsion energy =   1759.885572360009

        Time for solution =     99.6s


             Final eigenvalues
             -----------------

              1      
    1  -20.5621
    2  -20.5173
    3  -16.1475
    4  -15.9502
    5  -15.9307
    6  -15.8211
    7  -12.0132
    8  -11.9955
    9  -11.8937
   10  -11.8218
   11  -11.6977
   12  -11.6530
   13  -11.5722
   14  -11.5347
   15   -2.6007
   16   -2.4781
   17   -2.2061
   18   -2.1649
   19   -2.0892
   20   -1.9993
   21   -1.8688
   22   -1.8132
   23   -1.7166
   24   -1.5459
   25   -1.5157
   26   -1.4278
   27   -1.3919
   28   -1.3384
   29   -1.2921
   30   -1.1994
   31   -1.1580
   32   -1.1485
   33   -1.0956
   34   -1.0715
   35   -1.0293
   36   -0.9898
   37   -0.9202
   38   -0.9027
   39   -0.8503
   40   -0.8204
   41   -0.7871
   42   -0.7688
   43   -0.7543
   44   -0.6866
   45   -0.5862
   46   -0.5546
   47   -0.5545
   48   -0.4342
   49   -0.3960
   50   -0.3861
   51   -0.3073
   52    0.5089
   53    0.7869
   54    0.8509
   55    0.9862
   56    1.2281
   57    1.2406
   58    1.2806
   59    1.3392
   60    1.5071
   61    1.6057

                       ROHF Final Molecular Orbital Analysis
                       -------------------------------------

 Vector   26  Occ=2.000000D+00  E=-1.427788D+00
              MO Center= -9.7D-02,  4.4D-02,  1.3D-02, r^2= 1.4D+00
   Bfn.  Coefficient  Atom+Function         Bfn.  Coefficient  Atom+Function  
  ----- ------------  ---------------      ----- ------------  ---------------
    10      0.474198   3 C  py               24      0.412510   6 C  px        
    14     -0.386408   4 N  px               34     -0.330773   8 N  px        
    20     -0.296481   5 C  py               15     -0.292956   4 N  py        
    74     -0.294047  21 N  s                25      0.291721   6 C  py        
     9      0.275365   3 C  px               30     -0.265699   7 C  py        

 Vector   27  Occ=2.000000D+00  E=-1.391922D+00
              MO Center= -2.9D-01, -6.9D-02,  1.2D-02, r^2= 1.7D+00
   Bfn.  Coefficient  Atom+Function         Bfn.  Coefficient  Atom+Function  
  ----- ------------  ---------------      ----- ------------  ---------------
     6      0.445568   2 N  pz               16     -0.313639   4 N  pz        
    21     -0.281451   5 C  pz               31      0.212008   7 C  pz        
    57      0.207093  13 C  pz               51     -0.170068  11 O  pz        
    46     -0.158622  10 C  pz        

 Vector   28  Occ=2.000000D+00  E=-1.338420D+00
              MO Center=  6.9D-02,  6.0D-01,  7.2D-02, r^2= 1.7D+00
   Bfn.  Coefficient  Atom+Function         Bfn.  Coefficient  Atom+Function  
  ----- ------------  ---------------      ----- ------------  ---------------
    24      0.485116   6 C  px               74      0.387261  21 N  s         
     5     -0.361042   2 N  py               30      0.346573   7 C  py        
    34      0.326966   8 N  px               75      0.324509  21 N  px        
    14     -0.294733   4 N  px               71      0.284212  20 C  py        
     4     -0.258593   2 N  px               25      0.252868   6 C  py        

 Vector   29  Occ=2.000000D+00  E=-1.292064D+00
              MO Center= -4.4D-01,  2.2D-01,  5.9D-02, r^2= 1.7D+00
   Bfn.  Coefficient  Atom+Function         Bfn.  Coefficient  Atom+Function  
  ----- ------------  ---------------      ----- ------------  ---------------
     4      0.628006   2 N  px               24     -0.432144   6 C  px        
    15     -0.310329   4 N  py               35     -0.294920   8 N  py        
    29     -0.236831   7 C  px                5     -0.233902   2 N  py        
    74      0.230933  21 N  s                38      0.226206   9 O  s         
    13     -0.222106   4 N  s                53      0.214886  13 C  s         

 Vector   30  Occ=2.000000D+00  E=-1.199394D+00
              MO Center=  6.8D-02, -5.0D-01, -6.9D-02, r^2= 2.5D+00
   Bfn.  Coefficient  Atom+Function         Bfn.  Coefficient  Atom+Function  
  ----- ------------  ---------------      ----- ------------  ---------------
    20     -0.495272   5 C  py               15      0.466850   4 N  py        
    30      0.311668   7 C  py               23      0.300308   6 C  s         
    43     -0.268940  10 C  s                10      0.243725   3 C  py        
    42      0.216645  10 C  s                64      0.211333  19 C  s         
    24      0.180367   6 C  px                7      0.175716   3 C  s         

 Vector   31  Occ=2.000000D+00  E=-1.157971D+00
              MO Center=  3.7D-01, -1.3D-01, -4.2D-02, r^2= 2.3D+00
   Bfn.  Coefficient  Atom+Function         Bfn.  Coefficient  Atom+Function  
  ----- ------------  ---------------      ----- ------------  ---------------
    67     -0.387292  19 C  pz               21      0.357172   5 C  pz        
    26     -0.337620   6 C  pz               36     -0.336614   8 N  pz        
    31      0.290553   7 C  pz               41     -0.242655   9 O  pz        
    51      0.214843  11 O  pz               11      0.209826   3 C  pz        

 Vector   32  Occ=2.000000D+00  E=-1.148526D+00
              MO Center=  1.0D+00,  1.3D-01, -5.5D-02, r^2= 2.8D+00
   Bfn.  Coefficient  Atom+Function         Bfn.  Coefficient  Atom+Function  
  ----- ------------  ---------------      ----- ------------  ---------------
     9      0.434044   3 C  px               29     -0.341040   7 C  px        
    64     -0.299239  19 C  s                33      0.243343   8 N  s         
    76      0.225628  21 N  py               23      0.206785   6 C  s         
    43     -0.204907  10 C  s                20     -0.200872   5 C  py        
    65     -0.201534  19 C  px               69      0.188830  20 C  s         

 Vector   33  Occ=2.000000D+00  E=-1.095634D+00
              MO Center= -1.9D-01,  6.8D-01,  1.0D-01, r^2= 2.8D+00
   Bfn.  Coefficient  Atom+Function         Bfn.  Coefficient  Atom+Function  
  ----- ------------  ---------------      ----- ------------  ---------------
    30      0.572454   7 C  py               54     -0.394140  13 C  s         
    10     -0.346657   3 C  py               76     -0.314009  21 N  py        
    25      0.273922   6 C  py               75     -0.257704  21 N  px        
    64     -0.243186  19 C  s                20      0.226004   5 C  py        
    34      0.215287   8 N  px                5     -0.186354   2 N  py        

 Vector   34  Occ=2.000000D+00  E=-1.071544D+00
              MO Center=  2.6D-01,  9.4D-02, -6.4D-03, r^2= 2.7D+00
   Bfn.  Coefficient  Atom+Function         Bfn.  Coefficient  Atom+Function  
  ----- ------------  ---------------      ----- ------------  ---------------
    67      0.349394  19 C  pz               77     -0.334316  21 N  pz        
    46     -0.316478  10 C  pz               21      0.299875   5 C  pz        
    72     -0.281767  20 C  pz               57      0.264528  13 C  pz        
     6      0.263114   2 N  pz               51      0.230960  11 O  pz        
    16     -0.209967   4 N  pz               31     -0.205136   7 C  pz        

 Vector   35  Occ=2.000000D+00  E=-1.029272D+00
              MO Center= -4.7D-01, -8.5D-01, -7.6D-02, r^2= 2.8D+00
   Bfn.  Coefficient  Atom+Function         Bfn.  Coefficient  Atom+Function  
  ----- ------------  ---------------      ----- ------------  ---------------
    15      0.601660   4 N  py               45     -0.440555  10 C  py        
    43      0.298056  10 C  s                13     -0.287910   4 N  s         
    20     -0.222422   5 C  py               38      0.216742   9 O  s         
    54      0.188111  13 C  s                30      0.175363   7 C  py        
    65     -0.167397  19 C  px               56      0.164621  13 C  py        

 Vector   36  Occ=2.000000D+00  E=-9.898150D-01
              MO Center= -1.5D-01,  2.8D-01,  4.7D-02, r^2= 3.4D+00
   Bfn.  Coefficient  Atom+Function         Bfn.  Coefficient  Atom+Function  
  ----- ------------  ---------------      ----- ------------  ---------------
    34      0.545556   8 N  px               15     -0.419540   4 N  py        
    55     -0.330469  13 C  px                5     -0.319970   2 N  py        
     9     -0.271856   3 C  px               45      0.255362  10 C  py        
     4      0.244270   2 N  px               65     -0.245245  19 C  px        
    54      0.231736  13 C  s                29      0.229923   7 C  px        

 Vector   37  Occ=2.000000D+00  E=-9.202306D-01
              MO Center= -8.3D-01, -2.6D-01,  2.5D-02, r^2= 2.4D+00
   Bfn.  Coefficient  Atom+Function         Bfn.  Coefficient  Atom+Function  
  ----- ------------  ---------------      ----- ------------  ---------------
    46      0.518961  10 C  pz               57      0.487923  13 C  pz        
    26     -0.461766   6 C  pz               41     -0.294804   9 O  pz        
    11     -0.238631   3 C  pz               67      0.174838  19 C  pz        

 Vector   38  Occ=2.000000D+00  E=-9.027069D-01
              MO Center=  2.1D-01,  3.6D-01,  3.2D-02, r^2= 2.4D+00
   Bfn.  Coefficient  Atom+Function         Bfn.  Coefficient  Atom+Function  
  ----- ------------  ---------------      ----- ------------  ---------------
    34      0.616292   8 N  px                9     -0.514400   3 C  px        
    30     -0.415720   7 C  py               65     -0.398850  19 C  px        
     4     -0.384148   2 N  px                5      0.369978   2 N  py        
    29      0.362019   7 C  px                3      0.296125   2 N  s         
    75      0.291253  21 N  px               13     -0.266965   4 N  s         

 Vector   39  Occ=2.000000D+00  E=-8.502763D-01
              MO Center=  1.4D+00, -8.0D-02, -1.1D-01, r^2= 2.0D+00
   Bfn.  Coefficient  Atom+Function         Bfn.  Coefficient  Atom+Function  
  ----- ------------  ---------------      ----- ------------  ---------------
    66      0.661239  19 C  py               35     -0.471549   8 N  py        
    49     -0.356868  11 O  px               79      0.297518  23 H  s         
    65      0.281933  19 C  px               44     -0.280404  10 C  px        
     8      0.260317   3 C  s                71      0.231120  20 C  py        
    20     -0.215915   5 C  py               69     -0.212076  20 C  s         

 Vector   40  Occ=2.000000D+00  E=-8.203598D-01
              MO Center= -2.5D-01, -1.0D+00, -1.1D-01, r^2= 2.5D+00
   Bfn.  Coefficient  Atom+Function         Bfn.  Coefficient  Atom+Function  
  ----- ------------  ---------------      ----- ------------  ---------------
    44      0.718611  10 C  px               14     -0.385982   4 N  px        
    66      0.314054  19 C  py               59      0.297431  15 H  s         
    20      0.290205   5 C  py               70     -0.288851  20 C  px        
    25     -0.247712   6 C  py               39      0.227185   9 O  px        
    19      0.201245   5 C  px               75      0.196720  21 N  px        

 Vector   41  Occ=2.000000D+00  E=-7.870988D-01
              MO Center=  5.0D-01,  8.5D-01,  7.4D-02, r^2= 1.6D+00
   Bfn.  Coefficient  Atom+Function         Bfn.  Coefficient  Atom+Function  
  ----- ------------  ---------------      ----- ------------  ---------------
    70      0.764187  20 C  px               71      0.611468  20 C  py        
    29      0.564233   7 C  px               75     -0.526319  21 N  px        
    28      0.467351   7 C  s                10      0.425532   3 C  py        
    35     -0.338928   8 N  py               14     -0.282968   4 N  px        
     8      0.278488   3 C  s                 4     -0.247233   2 N  px        

 Vector   42  Occ=2.000000D+00  E=-7.688009D-01
              MO Center= -1.2D+00,  6.7D-01,  1.7D-01, r^2= 1.4D+00
   Bfn.  Coefficient  Atom+Function         Bfn.  Coefficient  Atom+Function  
  ----- ------------  ---------------      ----- ------------  ---------------
    56      0.619758  13 C  py               55      0.460714  13 C  px        
    29      0.435529   7 C  px                5     -0.403838   2 N  py        
    61     -0.322850  17 H  s                25      0.316051   6 C  py        
     4     -0.303972   2 N  px               39      0.246634   9 O  px        
    60      0.181517  16 H  s                62      0.181523  18 H  s         

 Vector   43  Occ=2.000000D+00  E=-7.543242D-01
              MO Center=  4.6D-02,  2.9D-01,  3.4D-02, r^2= 2.5D+00
   Bfn.  Coefficient  Atom+Function         Bfn.  Coefficient  Atom+Function  
  ----- ------------  ---------------      ----- ------------  ---------------
    72      0.480610  20 C  pz               31     -0.430993   7 C  pz        
    57      0.367401  13 C  pz               11     -0.337334   3 C  pz        
    51      0.332872  11 O  pz               41      0.283690   9 O  pz        
     6     -0.275116   2 N  pz               21      0.270736   5 C  pz        
    67     -0.269601  19 C  pz               77      0.239248  21 N  pz        

 Vector   44  Occ=2.000000D+00  E=-6.865970D-01
              MO Center=  7.2D-01,  3.9D-01, -3.8D-04, r^2= 2.1D+00
   Bfn.  Coefficient  Atom+Function         Bfn.  Coefficient  Atom+Function  
  ----- ------------  ---------------      ----- ------------  ---------------
    11      0.561226   3 C  pz               36      0.541260   8 N  pz        
    67     -0.512864  19 C  pz               77     -0.459743  21 N  pz        
    57      0.311151  13 C  pz               31     -0.250703   7 C  pz        
    78      0.237037  22 H  s                80     -0.237036  24 H  s         
    51     -0.229511  11 O  pz        

 Vector   45  Occ=2.000000D+00  E=-5.861830D-01
              MO Center=  5.8D-01, -9.3D-01, -1.6D-01, r^2= 2.1D+00
   Bfn.  Coefficient  Atom+Function         Bfn.  Coefficient  Atom+Function  
  ----- ------------  ---------------      ----- ------------  ---------------
    49      0.548685  11 O  px               50     -0.517079  11 O  py        
    48      0.491266  11 O  s                18      0.383935   5 C  s         
    39     -0.326103   9 O  px               66      0.327314  19 C  py        
    45      0.317784  10 C  py               13     -0.284083   4 N  s         
    20      0.260454   5 C  py               19     -0.241731   5 C  px        

 Vector   46  Occ=2.000000D+00  E=-5.546402D-01
              MO Center= -1.2D+00, -5.6D-01,  9.7D-03, r^2= 2.0D+00
   Bfn.  Coefficient  Atom+Function         Bfn.  Coefficient  Atom+Function  
  ----- ------------  ---------------      ----- ------------  ---------------
    39      0.661472   9 O  px               23     -0.525726   6 C  s         
    38     -0.513058   9 O  s                44     -0.403896  10 C  px        
    24     -0.394083   6 C  px               29     -0.390871   7 C  px        
    55     -0.389149  13 C  px               18      0.299658   5 C  s         
    50     -0.284637  11 O  py               19     -0.281012   5 C  px        

 Vector   47  Occ=2.000000D+00  E=-5.544621D-01
              MO Center= -4.8D-01, -9.1D-01, -8.3D-02, r^2= 1.6D+00
   Bfn.  Coefficient  Atom+Function         Bfn.  Coefficient  Atom+Function  
  ----- ------------  ---------------      ----- ------------  ---------------
    16      0.906838   4 N  pz               41     -0.449286   9 O  pz        
    46     -0.451262  10 C  pz               51     -0.392012  11 O  pz        
     1     -0.294478   1 H  s                58      0.294412  14 H  s         
    72      0.183298  20 C  pz               11     -0.175057   3 C  pz        
    31     -0.171781   7 C  pz        

 Vector   48  Occ=2.000000D+00  E=-4.342215D-01
              MO Center= -1.1D-01,  9.0D-01,  1.2D-01, r^2= 2.1D+00
   Bfn.  Coefficient  Atom+Function         Bfn.  Coefficient  Atom+Function  
  ----- ------------  ---------------      ----- ------------  ---------------
    76      0.783819  21 N  py                3     -0.689958   2 N  s         
    75     -0.486598  21 N  px               40      0.425105   9 O  py        
    14     -0.403813   4 N  px               52     -0.367407  12 H  s         
    33      0.344006   8 N  s                 8      0.330212   3 C  s         
     9     -0.266443   3 C  px               35      0.249412   8 N  py        

 Vector   49  Occ=2.000000D+00  E=-3.959609D-01
              MO Center= -5.8D-01, -2.8D-01,  4.5D-03, r^2= 2.2D+00
   Bfn.  Coefficient  Atom+Function         Bfn.  Coefficient  Atom+Function  
  ----- ------------  ---------------      ----- ------------  ---------------
    40      0.816926   9 O  py               13      0.744196   4 N  s         
    10      0.519335   3 C  py                5      0.488827   2 N  py        
    50      0.366454  11 O  py                4      0.337423   2 N  px        
    49      0.322034  11 O  px                8     -0.277178   3 C  s         
    75      0.272049  21 N  px                3     -0.258889   2 N  s         

 Vector   50  Occ=2.000000D+00  E=-3.860871D-01
              MO Center= -2.6D-01,  3.6D-01,  6.5D-02, r^2= 2.2D+00
   Bfn.  Coefficient  Atom+Function         Bfn.  Coefficient  Atom+Function  
  ----- ------------  ---------------      ----- ------------  ---------------
     6      0.894477   2 N  pz               11     -0.455494   3 C  pz        
    36      0.433202   8 N  pz               72      0.373068  20 C  pz        
    41     -0.364764   9 O  pz               57     -0.328121  13 C  pz        
    77     -0.308709  21 N  pz               51      0.299751  11 O  pz        
    60     -0.276320  16 H  s                62      0.276318  18 H  s         

 Vector   51  Occ=2.000000D+00  E=-3.073051D-01
              MO Center=  2.3D-01, -4.2D-01, -7.0D-02, r^2= 2.2D+00
   Bfn.  Coefficient  Atom+Function         Bfn.  Coefficient  Atom+Function  
  ----- ------------  ---------------      ----- ------------  ---------------
    50      0.655705  11 O  py               10      0.626301   3 C  py        
    49      0.621896  11 O  px               14      0.567387   4 N  px        
    40     -0.436377   9 O  py               76      0.389713  21 N  py        
    75     -0.254353  21 N  px               13      0.250495   4 N  s         
    39      0.220596   9 O  px               44      0.212639  10 C  px        

 Vector   52  Occ=0.000000D+00  E= 5.088919D-01
              MO Center=  6.0D-01,  1.9D-01, -1.8D-02, r^2= 1.8D+00
   Bfn.  Coefficient  Atom+Function         Bfn.  Coefficient  Atom+Function  
  ----- ------------  ---------------      ----- ------------  ---------------
    36      0.947247   8 N  pz               72     -0.879631  20 C  pz        
    31      0.673780   7 C  pz               11     -0.651092   3 C  pz        
    21     -0.592010   5 C  pz               51      0.592128  11 O  pz        
    16      0.456661   4 N  pz                6     -0.311924   2 N  pz        
    78      0.286755  22 H  s                80     -0.286754  24 H  s         

 Vector   53  Occ=0.000000D+00  E= 7.869377D-01
              MO Center= -5.8D-01, -1.0D-01,  2.8D-02, r^2= 1.8D+00
   Bfn.  Coefficient  Atom+Function         Bfn.  Coefficient  Atom+Function  
  ----- ------------  ---------------      ----- ------------  ---------------
    26      1.222629   6 C  pz               41     -0.867711   9 O  pz        
    31     -0.740704   7 C  pz               11      0.665539   3 C  pz        
    77      0.646823  21 N  pz               21     -0.466693   5 C  pz        
    72     -0.381183  20 C  pz               16     -0.359167   4 N  pz        
    51      0.278072  11 O  pz                1      0.268721   1 H  s         

 Vector   54  Occ=0.000000D+00  E= 8.509253D-01
              MO Center=  3.1D-01,  4.9D-01,  4.1D-02, r^2= 1.8D+00
   Bfn.  Coefficient  Atom+Function         Bfn.  Coefficient  Atom+Function  
  ----- ------------  ---------------      ----- ------------  ---------------
    77      1.050341  21 N  pz               72     -0.870000  20 C  pz        
    21      0.834292   5 C  pz               31     -0.829200   7 C  pz        
     6      0.590963   2 N  pz               36      0.586665   8 N  pz        
    51     -0.549671  11 O  pz               26     -0.366589   6 C  pz        
    60     -0.338492  16 H  s                62      0.338473  18 H  s         

 Vector   55  Occ=0.000000D+00  E= 9.861801D-01
              MO Center=  2.0D-01, -1.1D-01, -2.8D-02, r^2= 2.4D+00
   Bfn.  Coefficient  Atom+Function         Bfn.  Coefficient  Atom+Function  
  ----- ------------  ---------------      ----- ------------  ---------------
    23      3.052418   6 C  s                18      1.956951   5 C  s         
     8      1.559275   3 C  s                13     -1.440898   4 N  s         
    28      1.441501   7 C  s                48     -1.405421  11 O  s         
    74     -1.378202  21 N  s                38     -1.223524   9 O  s         
    33     -1.128136   8 N  s                 3     -1.108782   2 N  s         

 Vector   56  Occ=0.000000D+00  E= 1.228110D+00
              MO Center=  1.1D-03, -2.3D-01, -2.9D-02, r^2= 2.8D+00
   Bfn.  Coefficient  Atom+Function         Bfn.  Coefficient  Atom+Function  
  ----- ------------  ---------------      ----- ------------  ---------------
    21      1.002338   5 C  pz               11     -0.929563   3 C  pz        
     1      0.909154   1 H  s                58     -0.908997  14 H  s         
    78      0.912108  22 H  s                80     -0.912306  24 H  s         
    67      0.838843  19 C  pz               60      0.802147  16 H  s         
    62     -0.802008  18 H  s                46     -0.756235  10 C  pz        

 Vector   57  Occ=0.000000D+00  E= 1.240575D+00
              MO Center=  1.7D-01, -6.6D-02, -2.0D-02, r^2= 3.4D+00
   Bfn.  Coefficient  Atom+Function         Bfn.  Coefficient  Atom+Function  
  ----- ------------  ---------------      ----- ------------  ---------------
    23      2.526650   6 C  s                 3     -1.730267   2 N  s         
    18     -1.637534   5 C  s                28      1.393729   7 C  s         
    66     -1.078107  19 C  py               38     -0.974956   9 O  s         
    69      0.882557  20 C  s                78     -0.849328  22 H  s         
    80     -0.849114  24 H  s                13     -0.791285   4 N  s         

 Vector   58  Occ=0.000000D+00  E= 1.280560D+00
              MO Center=  5.9D-01,  5.5D-02, -3.4D-02, r^2= 3.6D+00
   Bfn.  Coefficient  Atom+Function         Bfn.  Coefficient  Atom+Function  
  ----- ------------  ---------------      ----- ------------  ---------------
    28      1.752429   7 C  s                23     -1.650280   6 C  s         
    13      1.516999   4 N  s                65      1.398901  19 C  px        
    33      1.097698   8 N  s                52     -1.076842  12 H  s         
     8      1.018604   3 C  s                79     -0.915756  23 H  s         
    18     -0.894428   5 C  s                34      0.820877   8 N  px        

 Vector   59  Occ=0.000000D+00  E= 1.339245D+00
              MO Center=  1.1D-01,  2.3D-01,  2.2D-02, r^2= 3.7D+00
   Bfn.  Coefficient  Atom+Function         Bfn.  Coefficient  Atom+Function  
  ----- ------------  ---------------      ----- ------------  ---------------
    33      2.301886   8 N  s                28     -1.356580   7 C  s         
    79     -1.091415  23 H  s                69     -1.074920  20 C  s         
    18     -1.013109   5 C  s                65      1.010274  19 C  px        
    56      0.997326  13 C  py               71      0.966765  20 C  py        
    23      0.895208   6 C  s                60     -0.875230  16 H  s         

 Vector   60  Occ=0.000000D+00  E= 1.507119D+00
              MO Center=  8.2D-02,  4.6D-01,  5.3D-02, r^2= 3.4D+00
   Bfn.  Coefficient  Atom+Function         Bfn.  Coefficient  Atom+Function  
  ----- ------------  ---------------      ----- ------------  ---------------
    79      1.496837  23 H  s                23      1.462513   6 C  s         
    56      1.436001  13 C  py               66     -1.248488  19 C  py        
    60     -0.952176  16 H  s                62     -0.952185  18 H  s         
    18      0.903181   5 C  s                 3      0.821902   2 N  s         
     8      0.746004   3 C  s                78     -0.738900  22 H  s         

 Vector   61  Occ=0.000000D+00  E= 1.605730D+00
              MO Center=  3.5D-01, -7.9D-01, -1.3D-01, r^2= 3.0D+00
   Bfn.  Coefficient  Atom+Function         Bfn.  Coefficient  Atom+Function  
  ----- ------------  ---------------      ----- ------------  ---------------
    46     -1.617433  10 C  pz                1      1.563840   1 H  s         
    58     -1.563836  14 H  s                67     -1.451048  19 C  pz        
    78     -1.386395  22 H  s                80      1.386390  24 H  s         
    16      0.604447   4 N  pz               36      0.587489   8 N  pz        
    11     -0.428368   3 C  pz               26     -0.425018   6 C  pz        


 center of mass
 --------------
 x =  -0.00919346 y =  -0.00092946 z =   0.00052950

 moments of inertia (a.u.)
 ------------------
         521.840411692927         -98.475836074805          33.390810092113
         -98.475836074805         671.728497282940         -57.602061234412
          33.390810092113         -57.602061234412        1164.386757970403

  Mulliken analysis of the total density
  --------------------------------------

    Atom       Charge   Shell Charges
 -----------   ------   -------------------------------------------------------
    1 H    1     0.63   0.63
    2 N    7     8.52   2.00  1.37  5.16
    3 C    6     5.77   1.99 -0.23  4.01
    4 N    7     8.56   2.00  1.37  5.19
    5 C    6     4.96   1.99 -0.61  3.57
    6 C    6     4.39   1.99 -0.90  3.30
    7 C    6     5.19   1.99 -0.55  3.75
    8 N    7     8.66   2.00  1.52  5.14
    9 O    8     8.54   2.00  1.68  4.87
   10 C    6     6.53   2.00  0.48  4.04
   11 O    8     8.51   2.00  1.68  4.83
   12 H    1     0.76   0.76
   13 C    6     6.48   2.00  0.46  4.01
   14 H    1     0.63   0.63
   15 H    1     0.67   0.67
   16 H    1     0.64   0.64
   17 H    1     0.67   0.67
   18 H    1     0.64   0.64
   19 C    6     6.41   2.00  0.44  3.97
   20 C    6     5.04   2.00 -0.46  3.51
   21 N    7     7.84   2.00  1.35  4.49
   22 H    1     0.63   0.63
   23 H    1     0.68   0.68
   24 H    1     0.63   0.63

       Multipole analysis of the density wrt the origin
       ------------------------------------------------

     L   x y z        total         open         nuclear
     -   - - -        -----         ----         -------
     0   0 0 0     -0.000000      0.000000    102.000000

     1   1 0 0      0.663119      0.000000      0.000000
     1   0 1 0      0.011249      0.000000      0.000000
     1   0 0 1     -0.045362      0.000000     -0.000000

     2   2 0 0    -57.803999      0.000000    366.267154
     2   1 1 0      1.348862      0.000000     52.814084
     2   1 0 1      0.977864      0.000000    -18.728988
     2   0 2 0    -58.503022      0.000000    281.489060
     2   0 1 1     -1.649528      0.000000     31.823093
     2   0 0 2    -46.686763      0.000000     10.206415

 ------------------------------------
     Number of active orbitals      4
     Number of active alpha electrons      2
     Number of active beta electrons       2
 ------------------------------------
                   NWChem Extensible Many-Electron Theory Module
                   ---------------------------------------------

              ======================================================
                   This portion of the program was automatically
                  generated by a Tensor Contraction Engine (TCE).
                  The development of this portion of the program
                 and TCE was supported by US Department of Energy,
                Office of Science, Office of Basic Energy Science.
                      TCE is a product of Battelle and PNNL.
              Please cite: S.Hirata, J.Phys.Chem.A 107, 9887 (2003).
              ======================================================

            General Information
            -------------------
      Number of processors :     1
         Wavefunction type : Restricted Hartree-Fock
          No. of electrons :   102
           Alpha electrons :    51
            Beta electrons :    51
           No. of orbitals :   160
            Alpha orbitals :    80
             Beta orbitals :    80
        Alpha frozen cores :    49
         Beta frozen cores :    49
     Alpha frozen virtuals :    27
      Beta frozen virtuals :    27
         Spin multiplicity : singlet 
    Number of AO functions :    80
       Number of AO shells :    52
        Use of symmetry is : off
      Symmetry adaption is : off
         Schwarz screening : 0.10D-08

          Correlation Information
          -----------------------
          Calculation type : Coupled-cluster singles & doubles                           
   Perturbative correction : none                                                        
            Max iterations :      100
        Residual threshold : 0.10D-07
     T(0) DIIS level shift : 0.00D+00
     L(0) DIIS level shift : 0.00D+00
     T(1) DIIS level shift : 0.00D+00
     L(1) DIIS level shift : 0.00D+00
     T(R) DIIS level shift : 0.00D+00
     T(I) DIIS level shift : 0.00D+00
   CC-T/L Amplitude update :  5-th order DIIS
                I/O scheme : Global Array Library
        L-threshold :  0.10D-07
        EOM-threshold :  0.10D-07
 no EOMCCSD initial starts read in
 TCE RESTART OPTIONS
 READ_INT:   F
 WRITE_INT:  F
 READ_TA:    F
 WRITE_TA:   F
 READ_XA:    F
 WRITE_XA:   F
 READ_IN3:   F
 WRITE_IN3:  F
 SLICE:      F
 D4D5:       F
 quantumc:   T
 qrotation:  F
 pwtce:      F
 qducc:      F
 nacto:                         0
 nrotv:                         0
 nrot:                          0

            Memory Information
            ------------------
          Available GA space size is    1048569600 doubles
          Available MA space size is     144171988 doubles

 Maximum block size supplied by input
 Maximum block size         1 doubles

 tile_dim =      1

 Block   Spin    Irrep     Size     Offset   Alpha
 -------------------------------------------------
   1    alpha     a      1 doubles       0       1
   2    alpha     a      1 doubles       1       2
   3    beta      a      1 doubles       2       1
   4    beta      a      1 doubles       3       2
   5    alpha     a      1 doubles       4       5
   6    alpha     a      1 doubles       5       6
   7    beta      a      1 doubles       6       5
   8    beta      a      1 doubles       7       6

 Global array virtual files algorithm will be used

 Parallel file system coherency ......... OK

 Fock matrix recomputed
 1-e file size   =               16
 1-e file name   = ./caffeine.f1
 Cpu & wall time / sec            6.2            5.0
 4-electron integrals stored in orbital form

 v2    file size   =               55
 4-index algorithm nr.  13 is used
 imaxsize =       30
 imaxsize ichop =        0
 begin_one_electron_integrals
    1    1       -35.5459245670
    2    1         0.0000106011
    3    1        -0.3636613521
    4    1        -0.0014731332
    1    2         0.0000106011
    2    2       -35.9895287429
    3    2        -0.0000009136
    4    2        -0.0000018806
    1    3        -0.3636613521
    2    3        -0.0000009136
    3    3       -35.7863059069
    4    3         0.6072701562
    1    4        -0.0014731332
    2    4        -0.0000018806
    3    4         0.6072701562
    4    4       -36.2547481858
 end_one_electron_integrals
 begin_two_electron_integrals
    1    1    1    1        0.3940034842
    2    1    1    1        0.0000004365
    2    1    2    1        0.0048834726
    3    1    1    1       -0.0180703369
    3    1    2    1       -0.0000007365
    3    1    3    1        0.0416219637
    3    1    2    2        0.0393317287
    4    1    1    1       -0.0079361249
    4    1    2    1        0.0000007819
    4    1    3    1        0.0037201623
    4    1    4    1        0.0383235152
    4    1    2    2        0.0157416456
    4    1    3    2       -0.0000000440
    4    1    3    3       -0.0245341227
    2    2    1    1        0.3158501246
    2    2    2    1       -0.0000013605
    2    2    2    2        0.4778155886
    3    2    1    1       -0.0000001667
    3    2    2    1        0.0033038765
    3    2    3    1        0.0000000638
    3    2    2    2        0.0000002284
    3    2    3    2        0.0089858337
    4    2    1    1        0.0000001205
    4    2    2    1        0.0011142748
    4    2    3    1       -0.0000000412
    4    2    4    1        0.0000001579
    4    2    2    2       -0.0000000235
    4    2    3    2        0.0009979235
    4    2    4    2        0.0056165032
    4    2    3    3       -0.0000000808
    3    3    1    1        0.3394183125
    3    3    2    1       -0.0000012206
    3    3    3    1        0.0256379627
    3    3    2    2        0.3643657003
    3    3    3    2        0.0000001387
    3    3    3    3        0.4241626427
    4    3    1    1       -0.0082019717
    4    3    2    1       -0.0000003090
    4    3    3    1        0.0018227279
    4    3    4    1       -0.0045851104
    4    3    2    2        0.0098060673
    4    3    3    2        0.0000000120
    4    3    4    2       -0.0000000310
    4    3    3    3        0.0060490321
    4    3    4    3        0.0139255470
    4    4    1    1        0.3669631527
    4    4    2    1        0.0000013148
    4    4    3    1       -0.0178701595
    4    4    4    1        0.0388776460
    4    4    2    2        0.3411408066
    4    4    3    2       -0.0000001181
    4    4    4    2        0.0000001695
    4    4    3    3        0.3200009687
    4    4    4    3       -0.0162925330
    4    4    4    4        0.4587670453
 end_two_electron_integrals
 enrep_tce =    1759.8855723600088     
  EHF(A)             =      1618.94011837
  EHF(total)         =      -627.62874891
  Shift (HFtot-HFA)  =     -2246.56886727
 Cpu & wall time / sec           57.6           12.5
 T1-number-of-tasks                    4

 t1 file size   =                4
 t1 file name   = ./caffeine.t1
 t1 file handle =       -998
 T2-number-of-boxes                   25

 t2 file size   =               25
 t2 file name   = ./caffeine.t2
 t2 file handle =       -996
CCSD iterations
 ---------------------------------------------------------
 Iter          Residuum       Correlation     Cpu    Wall 
 ---------------------------------------------------------
NEW TASK SCHEDULING
CCSD_T1_NTS --- OK
CCSD_T2_NTS --- OK
    1   0.0137021753709  -0.0016721058618     0.2     0.0
    2   0.0033061219324  -0.0020701710113     0.2     0.0
    3   0.0008461838565  -0.0021654583453     0.1     0.0
    4   0.0002303623900  -0.0021892258458     0.1     0.0
    5   0.0000663160852  -0.0021954066130     0.1     0.0
 MICROCYCLE DIIS UPDATE:                    5                    5
    6   0.0000000618083  -0.0021977374505     0.1     0.0
    7   0.0000000167681  -0.0021977381304     0.0     0.0
    8   0.0000000050191  -0.0021977383347     0.0     0.0
 -----------------------------------------------------------------
 Iterations converged
 CCSD correlation energy / hartree =        -0.002197738334726
 CCSD total energy / hartree       =      -627.630946644820028

 Singles contributions

 Doubles contributions
 Ground state specification:
 exp(T)|Ref>~(1+T)|Ref>
 ------- a(p)+/a(q) strings ----------

 singles norm

 doubles norm

 Reference string
   1.0000000000000000      :(1a)+ (2a)+ (1b)+ (2b)+ |0>

 Singles strings

 Doubles strings
 -------------------------------------

 Task  times  cpu:      167.4s     wall:       97.3s


                                NWChem Input Module
                                -------------------


 Summary of allocated global arrays
-----------------------------------
  No active global arrays



                         GA Statistics for process    0
                         ------------------------------

       create   destroy   get      put      acc     scatter   gather  read&inc
calls:  735      735     7.76e+04 7358     1.82e+04    0        0     1.68e+04 
number of processes/call 1.55e+13 1.12e+15 1.05e+13 0.00e+00 0.00e+00
bytes total:             1.51e+09 1.61e+08 3.16e+06 0.00e+00 0.00e+00 1.34e+05
bytes remote:            0.00e+00 0.00e+00 0.00e+00 0.00e+00 0.00e+00 0.00e+00
Max memory consumed for GA by this process: 149558408 bytes

MA_summarize_allocated_blocks: starting scan ...
MA_summarize_allocated_blocks: scan completed: 0 heap blocks, 0 stack blocks
MA usage statistics:

	allocation statistics:
					      heap	     stack
					      ----	     -----
	current number of blocks	         0	         0
	maximum number of blocks	        16	        42
	current total bytes		         0	         0
	maximum total bytes		     80120	  30758264
	maximum total K-bytes		        81	     30759
	maximum total M-bytes		         1	        31


                                     CITATION
                                     --------
                Please cite the following reference when publishing
                           results obtained with NWChem:

                 M. Valiev, E.J. Bylaska, N. Govind, K. Kowalski,
              T.P. Straatsma, H.J.J. van Dam, D. Wang, J. Nieplocha,
                        E. Apra, T.L. Windus, W.A. de Jong
                 "NWChem: a comprehensive and scalable open-source
                  solution for large scale molecular simulations"
                      Comput. Phys. Commun. 181, 1477 (2010)
                           doi:10.1016/j.cpc.2010.04.018

                                      AUTHORS
                                      -------
     E. Apra, E. J. Bylaska, N. Govind, K. Kowalski, M. Valiev, W. A. de Jong,
      T. P. Straatsma, H. J. J. van Dam, D. Wang, T. L. Windus, N. P. Bauman,
       A. Panyala, J. Hammond, J. Autschbach, K. Bhaskaran-Nair, J. Brabec,
    K. Lopata, S. A. Fischer, S. Krishnamoorthy, M. Jacquelin, W. Ma, M. Klemm,
       O. Villa, Y. Chen, V. Anisimov, F. Aquino, S. Hirata, M. T. Hackler,
           Eric Hermes, L. Jensen, J. E. Moore, J. C. Becca, V. Konjkov,
            D. Mejia-Rodriguez, T. Risthaus, M. Malagoli, A. Marenich,
   A. Otero-de-la-Roza, J. Mullin, P. Nichols, R. Peverati, J. Pittner, Y. Zhao,
        P.-D. Fan, A. Fonari, M. J. Williamson, R. J. Harrison, J. R. Rehr,
      M. Dupuis, D. Silverstein, D. M. A. Smith, J. Nieplocha, V. Tipparaju,
      M. Krishnan, B. E. Van Kuiken, A. Vazquez-Mayagoitia, M. Swart, Q. Wu,
   T. Van Voorhis, A. A. Auer, M. Nooijen, L. D. Crosby, E. Brown, G. Cisneros,
     G. I. Fann, H. Fruchtl, J. Garza, K. Hirao, R. A. Kendall, J. A. Nichols,
       K. Tsemekhman, K. Wolinski, J. Anchell, D. E. Bernholdt, P. Borowski,
       T. Clark, D. Clerc, H. Dachsel, M. J. O. Deegan, K. Dyall, D. Elwood,
      E. Glendening, M. Gutowski, A. C. Hess, J. Jaffe, B. G. Johnson, J. Ju,
        R. Kobayashi, R. Kutteh, Z. Lin, R. Littlefield, X. Long, B. Meng,
      T. Nakajima, S. Niu, L. Pollack, M. Rosing, K. Glaesemann, G. Sandrone,
      M. Stave, H. Taylor, G. Thomas, J. H. van Lenthe, A. T. Wong, Z. Zhang.

 Total times  cpu:      169.6s     wall:       98.7s
